9
Properties=species:S:1:pos:R:3 REF_energy="_JSON [[-3183.6802314033052, -3176.9244191836133, -3172.405942622005]]" REF_forces="_JSON [[[-3.731698606799527, -1.0764271367747846, 0.19214372277402014], [-3.995652658168785, -0.025766052857029435, 0.5673009315253942], [-10.844686782569422, -0.05529210446811731, 1.244694012226161]], [[6.630225068257229, -2.4257403858060425, 1.8536967939437732], [5.659697417354779, -2.3013497628799837, -0.649422085328148], [12.202563243075579, -2.0195328567587185, -0.8361972608472624]], [[0.19962026988277612, -0.059397271031178506, -1.0176882266764136], [-1.0550497964245276, 0.40445048726768296, 1.4273816574034262], [-1.1667313849049503, 0.39910794172705594, 4.111392341049141]], [[0.6574040074843363, 0.14036502732429976, 1.155476076077289], [0.6912676310215448, -0.7422110252580455, -0.2810706854006808], [1.3614674244095633, -2.349260264388344, -2.448547262454386]], [[-0.24529136429748008, 0.1333952213761548, 1.1062480930929839], [-0.10711800140654287, -0.2577909249053773, -1.183198892988599], [-0.05577711417092511, -0.015992267898489707, -3.886350393984661]], [[-3.4980755630493725, 3.392723331651937, -3.2558077724929846], [-1.0853194595051066, 2.5445585708058296, 0.12019482008207133], [-1.147911392684908, 3.976091013320103, 1.760089488819875]], [[0.11877581234456827, -0.05135007391644616, -0.007435981884987243], [0.17737937609274781, 0.08931673036512616, -0.024418443438488834], [0.1392234114725284, 0.036756935918814064, -0.040363228420828116]], [[0.08826601225757204, 0.11525316495993465, -0.10531973931094282], [-0.29498274386674395, -0.08275645463489377, -0.14847031539831607], [-0.7631195063211067, -0.5666902575575926, -0.17779874280813016]], [[-0.21922563608228685, -0.16882187778326277, 0.07868703447735492], [0.009778234902866834, 0.3715484320966461, 0.17170301354359174], [0.2749721016937949, 0.5948118601058602, 0.2730810464197905]]]" pbc="F F F"
C        0.00000000       0.00000000       0.00000000
C        1.28644539       0.00000000       0.00000000
H       -0.52078843       0.95765779       0.00000000
H        1.80199633       0.80073112      -0.52826095
C       -0.87048002      -1.22379842      -0.00000000
H        2.15998609      -1.01372238       0.66877623
H       -0.28391531      -2.13887145      -0.00000000
H       -1.52145135      -1.23484856      -0.87564365
H       -1.52139133      -1.23471640       0.87568993
9
Properties=species:S:1:pos:R:3 REF_energy="_JSON [[-3181.997303198731, -3176.9373541820273, -3175.531775790808]]" REF_forces="_JSON [[[5.096992396889532, 0.8961984444042614, 0.49823875600992534], [7.172319320954893, -0.7486557869199244, -0.34647639070820024], [4.119065205343527, -0.3808743502794814, -0.38756216107599634]], [[-2.4255660874467444, 1.8766189310852006, 3.217988479522743], [-4.963116777407687, 2.338168483120568, 2.233331844596004], [-2.756758692994738, 2.0649442881119144, 2.435468074902582]], [[0.3927309073513784, -0.10195212187480276, 1.0563189481627344], [-0.14710431218038056, 0.11512826953357236, -0.45819516166184104], [0.19270308749935683, 0.11988815774227257, -1.9500666955475792]], [[0.244613584776587, -0.6749266631318339, 0.8636927346607678], [0.2174462803669309, 0.5142800538660116, 0.09036318730498422], [0.6315172155311475, 1.8641244002950006, -0.7617902682870002]], [[0.5620836553026392, 0.06432779124244825, -1.171352608068164], [0.422116498041566, -0.07391563609915898, 0.8604189197670384], [0.41186714126572765, 0.07710834476923428, 2.5475843108371907]], [[-3.850201477166761, -1.9079120936440912, -4.512857491049346], [-2.4252920023959503, -2.6034834492228067, -2.451846848480009], [-2.2002478649916317, -3.6130917755675522, -1.8359941610091925]], [[0.055680481728107356, -0.1504804075892443, 0.019624424755688815], [0.11109548977160708, 0.10843995428665631, 0.011671138381357199], [0.04228488189940487, -0.05499247157121437, -0.01070062705161379]], [[-0.2219127981582458, -0.13228404506919, -0.10338475863350888], [-0.030630494464135186, 0.32958442844115626, -0.174239872443879], [0.16492525169065086, 0.3212982846455846, -0.25110106450313174]], [[0.14557933672167941, 0.1304101645772724, 0.13173151463952026], [-0.3568340026880821, 0.020453682993284962, 0.23497318324417854], [-0.605356225242055, -0.39840487814605186, 0.2141625917345642]]]" pbc="F F F"
C        0.00000000       0.00000000       0.00000000
C        1.56720000       0.00000000       0.00000000
H       -0.52078843       0.95765779       0.00000000
H        2.08275094      -0.53567916      -0.79578753
C       -0.87048002      -1.22379842      -0.00000000
H        2.44074070       0.67816766       1.00746381
H       -0.28391531      -2.13887145      -0.00000000
H       -1.52145135      -1.23484856      -0.87564365
H       -1.52139133      -1.23471640       0.87568993
9
Properties=species:S:1:pos:R:3 REF_energy="_JSON [[-3181.863201034377, -3178.239648794205, -3177.3356768362096]]" REF_forces="_JSON [[[-1.669155794647733, -0.5295542490104357, 0.36501276119407233], [1.616879998757738, -0.2541349416080241, 0.28145738491962025], [-0.2258154004051127, 0.3431886551975743, 0.5882935741704297]], [[4.143809112106478, -0.9139313885451025, 2.885793218094652], [0.9945397084842046, -1.2064489839804393, 2.5978941586424136], [2.048113476583587, -1.055182859066171, 2.188532845935052]], [[0.07557580767345862, 0.01660247604510084, -1.5264107021210254], [-0.66851072617273, 0.2502152999268128, 0.5060381597936844], [-0.55395760512009, 0.21946105629904253, 2.521144276503383]], [[0.7021972758150989, 1.411153092476636, 0.9532602267546619], [0.752993827649868, -0.3966686045555837, 0.28810692008096783], [1.1136022217343493, -2.345877708216778, -0.3218283512748571]], [[-0.046270843546567644, 0.0923579618596443, 1.7289051846556036], [-0.24274064487550115, -0.26406295941436025, -0.3904281182093652], [-0.19110424001926565, -0.22657492196046575, -2.4695118068957265]], [[-3.1140025097624973, 0.044822498692008404, -4.358947589327324], [-2.282844408726845, 1.5453323294172554, -3.2901334115869605], [-1.9941867785367595, 3.0117641309869723, -2.595606865790356]], [[0.09431697503438687, -0.07480807012508484, -0.004732387968605724], [0.14418787174342684, 0.09955537237883041, -0.005090682894446895], [0.10208963385098173, 0.011866236546663836, -0.0007010770073271788]], [[0.14580042204975505, 0.20389359769513385, -0.13352808828978496], [-0.22364818557988933, 0.05639679425127929, -0.1642961060553753], [-0.4945556016357279, -0.29707945436672406, -0.13645381341724458]], [[-0.33227044472151374, -0.25053591908789696, 0.09064737700798439], [-0.09085744127944788, 0.16981569358442442, 0.176451695310094], [0.19581429354646054, 0.3384348645805848, 0.22613121777646328]]]" pbc="F F F"
C        0.00000000       0.00000000       0.00000000
C        1.35709185       0.00000000       0.00000000
H       -0.52078843       0.95765779       0.00000000
H        1.87264279       0.29022163      -0.91433110
C       -0.87048002      -1.22379842      -0.00000000
H        2.23063255      -0.36741942       1.15753949
H       -0.28391531      -2.13887145      -0.00000000
H       -1.52145135      -1.23484856      -0.87564365
H       -1.52139133      -1.23471640       0.87568993
9
Properties=species:S:1:pos:R:3 REF_energy="_JSON [[-3180.8536579067227, -3171.956561662349, -3163.86259085638]]" REF_forces="_JSON [[[-31.929148454325095, 1.8491180792477047, 0.1758965172793172], [-35.418559518709124, -1.637496844414621, -0.1491762810954125], [-23.332999962285513, -1.1187765834798118, 0.5643224071594093]], [[34.17504490563234, 1.814567536031038, -0.15877249228094856], [38.471334304847446, -0.18681825404073404, 0.9606216840366438], [19.19308893382937, -11.084299816271402, -2.0489979949762525]], [[-0.4846005133801348, -0.26747731541017805, 0.31494548724740173], [-1.4660753371193103, 1.9200480233323762, -1.5429803596975624], [-1.8128506826036148, 3.356260025849872, -2.284743306991398]], [[1.326460492253209, 0.5385398527884369, 0.4532473656131391], [0.9895721662481821, 0.5038238889109776, -1.804556921411189], [2.9727524533253424, 0.7218577763965016, -1.8871554079506707]], [[-0.7771389740641786, -0.04994253633459262, -0.3442253341241672], [-0.8255872575118586, -0.05218661833970833, 1.9147995193193978], [-2.708022822332417, -1.48718259486668, 2.8570278856949054]], [[-2.493815571078095, -3.7299304780610516, -0.47489168172572654], [-1.4890751810667053, -1.0250399644944237, 0.9037340674801928], [5.585202318325421, 8.861838099856756, 3.0290779840524977]], [[0.1366549759300925, -0.0840787708265194, -0.009366416131635337], [0.18948037385743105, 0.0722087874726255, 0.07398511790546436], [0.13180434380396924, 0.280384173321707, 0.04037360540865758]], [[-0.008089815360827105, -0.09328151057206441, -0.02976890786967415], [-0.11762356650575562, 0.5319066361720078, -0.34127158990607287], [0.2873954791982403, 0.6947208879570392, -0.31789978173641725]], [[0.054632954394729386, 0.02248514313797331, 0.07293546199264568], [-0.3334659840412708, -0.12644565459738094, -0.01515523663139286], [-0.3163700612643358, -0.22480196876567257, 0.047994609338962185]]]" pbc="F F F"
C        0.00000000       0.00000000       0.00000000
C        1.07690066       0.00000000       0.00000000
H       -0.52078843       0.95765779       0.00000000
H        1.59245160      -0.95596139      -0.07979831
C       -0.87048002      -1.22379842      -0.00000000
H        1.95044136       1.21024328       0.10102434
H       -0.28391531      -2.13887145      -0.00000000
H       -1.52145135      -1.23484856      -0.87564365
H       -1.52139133      -1.23471640       0.87568993
9
Properties=species:S:1:pos:R:3 REF_energy="_JSON [[-3180.9947265710507, -3177.0102443968453, -3175.0175765619765]]" REF_forces="_JSON [[[-15.404490144897894, -0.9653128827129569, 0.5345787508580445], [-13.544737038300964, -0.17407090155203808, 0.5742851836151996], [-16.12552561696689, 0.2920101222635201, 1.296604006102558]], [[17.947384690260243, -0.9110350179501528, 2.1742866646701997], [15.907184431321532, -1.3407642786095328, 1.6923702555925486], [18.604479387845206, -1.3350095007534246, 1.0140584565298068]], [[-0.3063069804522168, 0.10677849957487903, -2.0640907192377886], [-1.0359443426887824, 0.40689725274113864, 0.7862930540568792], [-1.5198491971225208, 0.5507069194445247, 3.644018670830226]], [[1.1361849776853856, 1.7549143289001383, 1.3972797762507165], [1.3141571361078488, -0.6208264886216107, 0.13450322722847802], [1.5624700068446356, -3.2457821475590594, -1.0826432169042246]], [[-0.6322154455724284, -0.050836265152776526, 2.214136501027677], [-0.8700306849431813, -0.4499032067127177, -0.6967878226588828], [-0.8504700213324216, -0.4894529172423522, -3.6743080140040565]], [[-2.7053164667496836, 0.13798570076994024, -4.205445489063963], [-1.6829698166725897, 1.985728188874211, -2.5207293448285277], [-1.51325782908461, 4.006000674674835, -1.290512466176731]], [[0.13787444970500007, -0.023171407784784777, 0.003252779965938964], [0.15951334279932342, 0.09013853550933563, -0.007410501725875413], [0.165205893974044, 0.08175447506079671, -0.01929219317222166]], [[0.20716061802962196, 0.26919095793352843, -0.12762015536770172], [-0.22587886556118672, -0.06783157185300838, -0.1435935028350336], [-0.6531293545059502, -0.43903620272497906, -0.1155726895174506]], [[-0.3802756980106885, -0.3185139135770004, 0.07362189089698752], [-0.0212941620637476, 0.17063247022484146, 0.181069451554837], [0.33007673034719115, 0.5788085768362272, 0.22764744631193928]]]" pbc="F F F"
C        0.00000000       0.00000000       0.00000000
C        1.18433420       0.00000000       0.00000000
H       -0.52078843       0.95765779       0.00000000
H        1.69988514       0.40761943      -0.86837570
C       -0.87048002      -1.22379842      -0.00000000
H        2.05787490      -0.51604456       1.09936014
H       -0.28391531      -2.13887145      -0.00000000
H       -1.52145135      -1.23484856      -0.87564365
H       -1.52139133      -1.23471640       0.87568993
9
Properties=species:S:1:pos:R:3 REF_energy="_JSON [[-3183.3447483870937, -3177.3874745986827, -3174.346254522817]]" REF_forces="_JSON [[[2.140692424860168, 1.1640208385798547, 0.44523648214988315], [2.737001766137523, -0.7688684391233491, -0.04610146621689284], [-3.0839047190536437, -0.43275864557239596, 0.05603155922756934]], [[0.640073243574273, 2.4289558613046283, 2.3669897176078476], [-0.8709959393901776, 2.4902228655954137, 0.7250962766168977], [4.740596165027667, 2.0760193652030234, 1.2244125556107273]], [[0.11130689019598226, -0.15183917238903316, 1.144238726223376], [-0.42112641576025994, 0.2606934960821895, -0.822423023190507], [-0.41219934431815974, 0.1983924503469628, -3.049101875658612]], [[0.4779681658841297, -0.481751241966271, 1.1278752584014065], [0.5778141329443913, 0.6990981170929453, -0.11138288421722455], [0.9979840330855199, 2.362331297101044, -1.8053902554595753]], [[0.2465437779414269, 0.026394900116379284, -1.2269805672586214], [-0.010503928732105419, -0.0899454527534419, 1.1527450008416218], [0.07461631322354653, 0.12022600761592027, 3.5515889672873633]], [[-3.654071297294612, -2.861724043680118, -3.8981567105389288], [-1.713763922712085, -2.8589668998884012, -0.9920587609133624], [-1.8751321248584616, -4.271943110370739, 0.046426603091248596]], [[0.0847032547226667, -0.131901708467751, 0.017642177364939476], [0.10233420357786863, 0.05875163048331682, 0.018024764119464305], [0.0899325552554808, -0.006970995281584364, 0.012409713592329773]], [[-0.2135326524632003, -0.13641487512899866, -0.08400646665119202], [0.016043894722280412, 0.311179358136602, -0.16466971171989697], [0.2577332744298411, 0.500757095367832, -0.251182780494637]], [[0.16631619257798907, 0.14425944163124055, 0.1071613827017697], [-0.41680379078746005, -0.10216467562595467, 0.2407698046800503], [-0.7896261527920392, -0.5460534644118052, 0.21480551280349333]]]" pbc="F F F"
C        0.00000000       0.00000000       0.00000000
C        1.39848951       0.00000000       0.00000000
H       -0.52078843       0.95765779       0.00000000
H        1.91404045      -0.71072656      -0.64428077
C       -0.87048002      -1.22379842      -0.00000000
H        2.27203021       0.89977697       0.81565686
H       -0.28391531      -2.13887145      -0.00000000
H       -1.52145135      -1.23484856      -0.87564365
H       -1.52139133      -1.23471640       0.87568993
9
Properties=species:S:1:pos:R:3 REF_energy="_JSON [[-3183.8508728161837, -3176.2508644883437, -3171.9190844422524]]" REF_forces="_JSON [[[4.458877754224454, -1.0572843648045316, 0.007530207693606831], [3.131773076134488, 0.2449825824477195, 0.40173469450316396], [-7.399065181018611, -0.4609166652646434, 0.655189438426862]], [[-0.9780940970267444, -3.9503950581899536, 1.8482641188819011], [-3.0542465685662004, -1.5869922984268652, -3.052241105196747], [9.287529171915049, -3.5128566433058293, -0.7319288174071539]], [[0.7353004892913947, -0.09213124030427546, -0.4601003760060526], [-0.7574057398743063, 0.1964513762658403, 1.363646738522432], [-0.018152365109247743, -0.08510683864834495, 2.587774391767403]], [[0.3562152527798918, -0.4381333786211113, 0.2679940245008607], [-0.13150601523931216, -0.23652173605243834, 0.32685586685003826], [0.4627138745274555, -1.1085112174591611, -1.5555388032545885]], [[0.09721773706053552, 0.2784850602647296, 0.35962937890184343], [1.0265143847772042, 0.01389696018474893, -0.6217719801917898], [1.2696795059498647, 0.8810511677607982, -2.230301581204385]], [[-4.599963772625644, 5.522623918603671, -2.034688559520688], [-0.07932001160993572, 0.7435897723915691, 1.7010464825606322], [-2.912876496869029, 4.592782175363817, 1.3139237632578873]], [[0.0779768552831164, -0.10694404051984217, -0.0033893114726005124], [0.1755500840947236, 0.09045490333584227, -0.03582358657828631], [0.09771571894902627, -0.0839905673082479, -0.04156897003794905]], [[-0.02636364928416709, -0.022049877872635, -0.11138442012183519], [-0.2240474476117762, 0.1176315566279218, -0.19655106484821802], [-0.7110042666875267, -0.4505567268840427, -0.29687752417867325]], [[-0.12116656970304046, -0.13417101855638688, 0.1261449371423148], [-0.08731176210435691, 0.4165068832266595, 0.11310395437810304], [-0.07653996165948017, 0.22810531574399287, 0.29932810263125287]]]" pbc="F F F"
C        0.00000000       0.00000000       0.00000000
C        1.45965519       0.00000000       0.00000000
H       -0.52078843       0.95765779       0.00000000
H        1.97520613       0.92669808      -0.24791255
C       -0.87048002      -1.22379842      -0.00000000
H        2.33319589      -1.17319603       0.31385629
H       -0.28391531      -2.13887145      -0.00000000
H       -1.52145135      -1.23484856      -0.87564365
H       -1.52139133      -1.23471640       0.87568993
9
Properties=species:S:1:pos:R:3 REF_energy="_JSON [[-3180.6334604668646, -3177.981778051781, -3177.588971741175]]" REF_forces="_JSON [[[-10.460527121846605, 0.6022957406886181, 0.9390541223699159], [-6.3168604308166145, -0.113694697952637, 0.3036322542068915], [-7.060526074154872, -0.7366480950656559, 0.4741741341371181]], [[12.748792772112704, 0.23291190984933616, 2.203182336022504], [8.13127260348304, 0.6037927892784811, 2.3828992852861552], [10.354454177071764, 0.5344731713594627, 2.778619403673738]], [[-0.4519202728747495, 0.058408854307658735, 1.345099134566674], [-0.5937899281406257, 0.28268062587149956, -0.15570183443880256], [-1.0561992134948388, 0.40834586797690625, -1.698203474627141]], [[1.1150958935134307, -1.2780846338210545, 0.6558063935058706], [1.3565680440809762, 0.22770241438703814, 0.34011548515140066], [1.0735819263234783, 1.7443475976520288, 0.1521054639995905]], [[-0.27711771654182843, -0.06452339909435957, -1.3330223025412333], [-0.7069310723331158, -0.36285995263789356, 0.30845285838965425], [-0.758847234646245, -0.3567919084681301, 1.7794710721190459]], [[-2.6194821000105155, 0.5602032887390355, -3.8596523489847034], [-1.745014601385765, -0.6645883653167513, -3.2122724045475124], [-2.360062715733511, -1.8953877326598412, -3.4817405631013463]], [[0.11080115631941231, -0.07843380547084013, 0.006371112557886021], [0.10993356160126937, 0.03017512920583937, 0.013895105643974242], [0.1701668732180439, 0.11097242939973663, 0.015222673808227019]], [[-0.27023285581714784, -0.1734233948903673, -0.08692937735432521], [-0.07862101373624435, 0.06074480959460344, -0.15996969620057716], [0.061246495541796474, 0.34420919305932335, -0.1716034273122516]], [[0.104590245146848, 0.14064543969271198, 0.1300909298584415], [-0.15655716275443146, -0.0639527524290335, 0.17894894650921814], [-0.4238142341231013, -0.1535205232541026, 0.15195471730311877]]]" pbc="F F F"
C        0.00000000       0.00000000       0.00000000
C        1.24515901       0.00000000       0.00000000
H       -0.52078843       0.95765779       0.00000000
H        1.76070995      -0.12399081      -0.95123932
C       -0.87048002      -1.22379842      -0.00000000
H        2.11869971       0.15697186       1.20426514
H       -0.28391531      -2.13887145      -0.00000000
H       -1.52145135      -1.23484856      -0.87564365
H       -1.52139133      -1.23471640       0.87568993
9
Properties=species:S:1:pos:R:3 REF_energy="_JSON [[-3179.7482118199673, -3177.499287446865, -3177.163201502329]]" REF_forces="_JSON [[[-16.231161047128026, -0.15718169788412958, 0.9028369669036753], [-11.98976120991201, 0.24989072471175378, 0.41080608187191586], [-12.474818234221642, -0.5348746349066525, 0.8489391892642285]], [[18.466421994871308, -0.11364535196827297, 1.9340541092738828], [11.93135115216196, 0.1604067106633005, 1.655467902042965], [17.919152610204343, -0.30496961577601506, 3.2156421816404337]], [[-0.5495101487561357, 0.16770700198472213, -0.6542044796636487], [-0.1601309367226989, 0.18668145612439643, 0.3551780313346797], [-1.9158754392012678, 0.5799031454559611, 0.6388000437175293]], [[1.3117723758090005, 0.6906528863605547, 0.5586483757779862], [2.0416542826374084, -0.24261837133500447, 0.30387162649323285], [0.6319587261998407, -0.6818236050313564, 0.33890976286579483]], [[-0.5694448245563178, -0.09042328301826455, 0.7721134778586675], [-0.8270929566523212, -0.4063300881893152, -0.13167182126476035], [-0.9280291051976053, -0.4776794527705728, -0.822598846881317]], [[-2.3617113313052167, -0.3881983736007302, -3.504491406531611], [-0.9722942274470078, 0.2980398717541061, -2.638674274420626], [-3.013847754631415, 0.8035341621144036, -4.263342124732941]], [[0.1264641427507546, -0.05184461256494106, 0.005319926840686573], [0.060545555549574116, -0.03272890319995217, 0.009186080038575538], [0.24963596196137883, 0.19438930551226505, 0.0077277725769566786]], [[0.001097092582998621, 0.08772720567235331, -0.1153800338957795], [-0.06999705212376608, -0.11258237455400757, -0.15045231002722081], [-0.3438719008315716, 0.1009518001348025, -0.13520734448916136]], [[-0.19392825426932722, -0.14479377497974477, 0.10110306343621864], [-0.014274607492707685, -0.10075902597473202, 0.1862886839316789], [-0.12430486428374878, 0.32056889526770743, 0.1711293660389321]]]" pbc="F F F"
C        0.00000000       0.00000000       0.00000000
C        1.19405475       0.00000000       0.00000000
H       -0.52078843       0.95765779       0.00000000
H        1.70960569       0.04581302      -0.95819159
C       -0.87048002      -1.22379842      -0.00000000
H        2.06759545      -0.05799910       1.21306670
H       -0.28391531      -2.13887145      -0.00000000
H       -1.52145135      -1.23484856      -0.87564365
H       -1.52139133      -1.23471640       0.87568993
9
Properties=species:S:1:pos:R:3 REF_energy="_JSON [[-3183.4467022108347, -3176.2214760975335, -3172.5409901184485]]" REF_forces="_JSON [[[5.473664545981226, 1.5553297303056384, 0.23277903495109312], [4.715747902242456, -1.6296849459517986, -0.21703979994588568], [-4.224444066680063, 0.0950193913876321, -0.05603738681230791]], [[-2.211881211733835, 3.8227739071233544, 2.105872453730284], [-4.020214578801241, 2.021657589081984, -1.9599225530512547], [5.992512610375856, 2.9261240392776005, 0.21855757218374774]], [[0.38526366502784404, -0.23947230941148323, 0.41132559603281316], [-0.033660325256374246, 0.26430195401278217, -0.5662412238667762], [0.09742874697303489, -0.09796974574815683, -2.1082348886877886]], [[0.33016702515929675, 0.29436027050014396, 0.37057162334140686], [-0.07692042537469332, 0.25507716615617476, 0.2304392981553523], [0.44413555947423217, 1.1670005183326428, -1.543841458440053]], [[0.49852574195502675, 0.07643239479678891, -0.5595408986077137], [0.6007617582362411, 0.16673920913979137, 1.1856842979514002], [1.1176781899703905, 0.656076451725217, 2.6022041166582497]], [[-4.54917793532958, -5.240853440874504, -2.531037034965677], [-0.7420019578515767, -1.560884195393048, 1.1411458750606902], [-2.7638424545569262, -4.461415611164026, 0.8384641275769033]], [[0.07034894797336069, -0.1914884263442585, 0.019487266890296392], [0.06872169542072645, 0.08823141082610236, -0.014619038829708908], [0.059313163736673266, -0.10517265111498265, 0.009026149609512535]], [[-0.12311128278769438, -0.1083150768654862, -0.12617892810521672], [0.04639934829994016, 0.4193642281884708, -0.13010948332490233], [0.06541324664826834, 0.3136438074939882, -0.27421678449176057]], [[0.1262005037537861, 0.031232950770668722, 0.07672088673297292], [-0.5588334169145172, -0.024802416060242874, 0.3306626278504146], [-0.7881949959412372, -0.49330620018918414, 0.31407855240338095]]]" pbc="F F F"
C        0.00000000       0.00000000       0.00000000
C        1.50866005       0.00000000       0.00000000
H       -0.52078843       0.95765779       0.00000000
H        2.02421099      -0.90261575      -0.32483036
C       -0.87048002      -1.22379842      -0.00000000
H        2.38220075       1.14270791       0.41123393
H       -0.28391531      -2.13887145      -0.00000000
H       -1.52145135      -1.23484856      -0.87564365
H       -1.52139133      -1.23471640       0.87568993
9
Properties=species:S:1:pos:R:3 REF_energy="_JSON [[-3183.3347795812497, -3177.084406856449, -3174.0421060610993]]" REF_forces="_JSON [[[4.168428032304636, -0.8490438648824726, 0.13956408318514696], [4.124894414012901, 0.02587343105368927, 0.14149298950903724], [-2.099020154312624, 0.09006880861104563, 0.6282851263383352]], [[-1.2620826493347015, -2.708617771053645, 2.464401051634883], [-2.6338453523408125, -2.8806547401778646, 0.06841036741006046], [3.6459149792395737, -2.749199317978464, 0.5593368255470003]], [[0.4999297107434495, -0.035508709672769416, -0.9771519323446313], [-0.5030090307142779, 0.19232376421061986, 1.2062825355832179], [-0.3866063018101186, 0.10451829707645337, 3.1198909511421307]], [[0.33683519717804283, 0.22896159990620737, 1.0057747594116646], [0.3311359388038447, -0.5783927841572093, -0.03658727874670384], [0.7445114838021586, -1.9735256551974798, -1.665479874399679]], [[0.14965718903435923, 0.15719438718836026, 1.0474569519833272], [0.45813907342614874, -0.013898628664869073, -0.7603496619046154], [0.5918129592272596, 0.27391943025966403, -2.8517842661871793]], [[-3.850026986087556, 3.3311362190810647, -3.6551178422385573], [-1.6049989168570657, 2.8870153790166264, -0.5513362188849878], [-2.088688929237017, 4.304643631904109, 0.180592041964551]], [[0.08510293637998492, -0.08279165611357696, -0.0040640739234602255], [0.15055826846815307, 0.07022290823225975, -0.041229196792312295], [0.10600814949054303, -0.022875873842042004, -0.029417936612495862]], [[0.08806077882356035, 0.1115536175024083, -0.11773133330804757], [-0.282407376721213, 0.014930243284038757, -0.19122954785480684], [-0.663350544164834, -0.40622416814972806, -0.20678720004982762]], [[-0.21590420904508048, -0.15288382195593112, 0.09686833559954765], [-0.040467018076270775, 0.2825804272016574, 0.16454601168095873], [0.14941835776636894, 0.3786748473137245, 0.2653643322571768]]]" pbc="F F F"
C        0.00000000       0.00000000       0.00000000
C        1.45413144       0.00000000       0.00000000
H       -0.52078843       0.95765779       0.00000000
H        1.96968238       0.76045674      -0.58475252
C       -0.87048002      -1.22379842      -0.00000000
H        2.32767214      -0.96273517       0.74029433
H       -0.28391531      -2.13887145      -0.00000000
H       -1.52145135      -1.23484856      -0.87564365
H       -1.52139133      -1.23471640       0.87568993
9
Properties=species:S:1:pos:R:3 REF_energy="_JSON [[-3180.4252901263567, -3176.0107316085855, -3173.403332265068]]" REF_forces="_JSON [[[-21.908087970239404, 1.2257674805690117, 0.9821376054435335], [-20.336390070356664, -0.35956837060039815, 0.4994422072969675], [-22.772087086034713, -1.0753511873051078, 0.7454071520108014]], [[24.490623314732197, 1.2102124696184184, 1.7778071984638626], [22.806809940175643, 1.6447450125309193, 1.4342751094302493], [25.228807139570165, 1.2164101528158364, 0.8178270911903568]], [[-0.6719702942438418, 0.030208061221262107, 2.0759453282007243], [-1.1336390825423572, 0.5138113489844415, -0.7676454993112158], [-1.5409859232641208, 0.8290448526616083, -3.8221939114026524]], [[1.2604040063260422, -1.670194443899094, 1.4738597049980395], [1.4602765053158593, 0.7369919375924422, 0.0068671195185208735], [1.8192019980608691, 3.4467981042051936, -1.4320571850961163]], [[-0.554097333980883, -0.16926207824077683, -2.156852874224455], [-1.127214382530559, -0.44840833790921564, 0.9064652958092871], [-1.3869482200016576, -0.4911918648613922, 4.090442676228087]], [[-2.660477749168578, -0.5631694449528653, -4.220479538802401], [-1.5648638348550838, -2.221023533333983, -2.136586704441092], [-1.1375138212224558, -4.078750570548014, -0.371608717439497]], [[0.13780404256191175, -0.0592585037298388, 0.010322476661296742], [0.16093051319179835, 0.06873431339263009, 0.03253425011984992], [0.18031293020109204, 0.091051104065639, 0.04166827567559052]], [[-0.34479518137624715, -0.270765655531677, -0.06251750119799404], [-0.0005724125993575321, 0.20167102233166795, -0.1534039108340512], [0.34942576740421566, 0.6331991074827419, -0.21290007831483057]], [[0.25059716539018884, 0.26646211494419375, 0.1197776004571744], [-0.26533717579793026, -0.13695339298873505, 0.17805213241127413], [-0.7402127847103609, -0.5712096985167161, 0.14341469714845684]]]" pbc="F F F"
C        0.00000000       0.00000000       0.00000000
C        1.13906005       0.00000000       0.00000000
H       -0.52078843       0.95765779       0.00000000
H        1.65461099      -0.47955584      -0.83081656
C       -0.87048002      -1.22379842      -0.00000000
H        2.01260075       0.60711577       1.05181042
H       -0.28391531      -2.13887145      -0.00000000
H       -1.52145135      -1.23484856      -0.87564365
H       -1.52139133      -1.23471640       0.87568993
9