9
Properties=species:S:1:pos:R:3 REF_energy="_JSON [[-3180.5708359631053, -3172.819429664821, -3171.318621160814]]" REF_forces="_JSON [[[-39.80274960589749, -1.3854010682455935, 0.1287566767154976], [-40.82518292967079, -0.06164199441750214, 0.7889938676421444], [-40.132231497495056, -3.401788004545198, 0.34478037989383925]], [[41.67797475759952, 0.09949901305357743, -0.049881637830581374], [42.59885004247844, -0.11992304651182172, -1.8817912781434654], [40.144556111824485, 2.9358447999998623, 2.006417334196828]], [[-0.29737823050665624, -0.2741669530806091, -0.8163514903654737], [-2.0167400790988017, 0.6907885588302514, 1.1241357563685872], [-0.5495622857706975, 0.3791801627165096, 0.7945504202491747]], [[1.1267651174290663, -0.6290081554005297, 1.4137975580157356], [0.6169174125656498, -0.46163078143465847, -0.3227759690199959], [2.6922957219899377, -0.5350730840169963, -1.7614109585103699]], [[-0.9520675521541256, 0.16199219665623435, 1.037535888931049], [-0.9467417137748444, -0.6503574024168497, -1.1517301110854388], [-1.3607213388497335, -0.06588367406534304, -0.75389233524784]], [[-1.833409284751093, 2.213670607430802, -1.7145186744929164], [0.5490640992518218, 0.08608575743962768, 1.2911744561144463], [-0.5765282928242268, 0.9171423703516581, -0.421640291871362]], [[0.18133440391684258, -0.03188453636639131, -0.008559567216996827], [0.2320993960297637, 0.1506075592413418, 0.0030020120398297242], [0.11077800342152064, 0.049327013207829534, -0.016298440547118632]], [[0.11205156889111798, 0.06098514609500585, -0.04764794457395749], [-0.1919922015779118, -0.021166002701752826, -0.03460867871594008], [-0.3994882141913556, -0.2641062160969593, -0.29434098531447744]], [[-0.21252117452531852, -0.21568625014118642, 0.05686919081801693], [-0.01627402620411191, 0.3872373519715878, 0.18359994479914285], [0.07090179189780547, -0.014643367552566906, 0.10183487715010947]]]" pbc="F F F"
C        0.00000000       0.00000000       0.00000000
C        1.05835442       0.00000000       0.00000000
H       -0.52078843       0.95765779       0.00000000
H        1.57390536       0.87635152      -0.39017684
C       -0.87048002      -1.22379842      -0.00000000
H        1.93189512      -1.10945750       0.49396230
H       -0.28391531      -2.13887145      -0.00000000
H       -1.52145135      -1.23484856      -0.87564365
H       -1.52139133      -1.23471640       0.87568993
9
Properties=species:S:1:pos:R:3 REF_energy="_JSON [[-3182.5342369804507, -3178.770412074359, -3178.2921410712083]]" REF_forces="_JSON [[[2.790602365332419, 0.2956703797968959, 0.17536058305703126], [5.718716208064454, -0.24198311108956483, -0.14525265041304594], [6.238843907415798, -0.10709739087121176, -0.7897264239709928]], [[-1.6048546297693838, -0.1479189346682534, 1.9350232796889575], [-5.26814697638868, -0.1536844921122748, 0.5359518532976959], [-5.969501683168643, -0.20830243712455185, 1.3907395114456989]], [[0.42109962341684437, -0.06346225305611909, -0.0011282401337248946], [-0.06498891891742196, 0.037338746291867966, 0.3030722428914487], [0.09220490983282918, 0.09141626148971753, 0.2592731115581052]], [[0.40652639585564826, 0.100520911446847, 0.5652297994787888], [0.21605217780387198, -0.12210563200386408, 0.3516445277929351], [0.15902152781337509, 0.03953764223154676, 0.29451983906799584]], [[0.329140280457048, 0.059253477759473525, 0.28664174964077727], [0.3943828657156747, -0.07097951836355643, 0.058491086948595124], [0.37544091958621734, -0.09280776807602592, 0.30288253663183656]], [[-2.28682943524757, -0.0009716210829967906, -2.950847559852067], [-0.9059250996046972, 0.18651741102022418, -1.0986996592723166], [-0.7711086390976564, 0.09926630149064414, -1.4515067370947246]], [[0.04477743065397961, -0.15151573177630806, -0.004047013540172975], [0.11628590166020254, 0.04772580045132237, -0.0009975908390237405], [0.07412531891282177, -0.005609369837195062, -0.0033931159080102845]], [[-0.014427400885788847, 0.007863565068614862, -0.12126517814810416], [-0.10124556792776938, 0.19233229149450456, -0.1407563029972892], [-0.06737093619111229, 0.16194426275553533, -0.16380270200613495]], [[-0.08603462981268502, -0.09943979348822767, 0.11503257980854985], [-0.10513059040372974, 0.12483850431159262, 0.13654649259057874], [-0.1316553251019052, 0.021652497942343054, 0.16101398027624675]]]" pbc="F F F"
C        0.00000000       0.00000000       0.00000000
C        1.56107277       0.00000000       0.00000000
H       -0.52078843       0.95765779       0.00000000
H        2.07662371       0.03347860      -0.95870180
C       -0.87048002      -1.22379842      -0.00000000
H        2.43461347      -0.04238378       1.21371262
H       -0.28391531      -2.13887145      -0.00000000
H       -1.52145135      -1.23484856      -0.87564365
H       -1.52139133      -1.23471640       0.87568993
9
Properties=species:S:1:pos:R:3 REF_energy="_JSON [[-3184.653043809315, -3178.502891462342, -3176.6481667833255]]" REF_forces="_JSON [[[5.323048386112142, -0.6242455985400425, -0.07213371068157758], [1.874367750645768, 0.9460497060199807, -0.09492563475765854], [1.6232475186441881, -1.910943697212954, -0.18916377738812115]], [[-3.9162649852159452, -1.4955424830271768, 0.7016564292415202], [-3.0370560325824796, 0.0979620180065247, -1.2468337796587212], [-1.6282029716150384, 0.2760810508755647, 0.28884649733853973]], [[0.5476746290295477, -0.0153537635778947, -0.4900174434682192], [-0.15193296581891821, -0.07496384767839945, 0.0265669172780385], [0.346970261158864, 0.10949704086941173, 1.2298802486159894]], [[0.3339889115399264, -0.3264858436091854, 0.759644273559161], [-0.5819133808054249, 0.576282642108353, 0.24164346105784415], [1.1542361548593887, -1.1948394186116351, -0.6356413001424124]], [[0.015792768682243566, 0.04193564628803303, 0.6554635528180492], [0.5633780258180011, -0.1507447726410578, 0.09753278767215363], [0.5046400452632757, 0.47468527955704265, -0.5544933629453505]], [[-2.360393438888259, 2.587933822543468, -1.5408469101336877], [1.2728892954226916, -1.6813419784077854, 0.9529515414158471], [-1.7429901041179496, 2.2703793332922078, -0.04121490385370075]], [[0.07222597491698766, -0.11262586866466719, -0.0043186832446583945], [0.10242989857067754, -0.007835795374789248, 0.009442173159008981], [0.10332732856268616, -0.021325763675009265, -0.04126790495071572]], [[0.09425190684249089, 0.048981986330910395, -0.09201687617062317], [-0.0031466770994105654, 0.15698492201702613, -0.0899174326592986], [-0.29737559611640446, -0.020998276171998228, -0.20516002153900834]], [[-0.11032415301997753, -0.10459789774372291, 0.08256936808013693], [-0.03901591415277465, 0.13760710595176334, 0.10353996649185143], [-0.06385263663883017, 0.01746445107561454, 0.14821452486520212]]]" pbc="F F F"
C        0.00000000       0.00000000       0.00000000
C        1.49492562       0.00000000       0.00000000
H       -0.52078843       0.95765779       0.00000000
H        2.01047656       0.88943464      -0.35935492
C       -0.87048002      -1.22379842      -0.00000000
H        2.36846631      -1.12602069       0.45494189
H       -0.28391531      -2.13887145      -0.00000000
H       -1.52145135      -1.23484856      -0.87564365
H       -1.52139133      -1.23471640       0.87568993
9
Properties=species:S:1:pos:R:3 REF_energy="_JSON [[-3184.3100316688638, -3178.474908142073, -3177.137654185434]]" REF_forces="_JSON [[[4.879814314812128, -0.5778506093068281, -0.11682880900995964], [2.274678976532513, 1.041638614082086, -0.231177298175965], [1.6463043922650102, -1.5377144016913404, 0.4034610726298922]], [[-3.5241879847581776, -1.3222704429982364, 1.0884003272710188], [-3.3870348800737498, -0.7501777180258979, -1.7340503888086318], [-0.8351206712506508, -0.10547270183461974, 0.5908719757615095]], [[0.5338033176379582, -0.013771751704713465, -0.7299414794228148], [-0.13677057294913939, -0.027572910629139774, 0.11252096091100193], [0.03848718862026706, 0.05742037557468386, 1.1018298740168693]], [[0.3686159357054034, 0.02086939656461372, 1.077087200851501], [-0.4862026153819173, 0.670718885032228, 0.3567293981619273], [0.8381016578335809, -1.2039726311057717, -0.5446252470443598]], [[0.04694344598436635, 0.053571939829902694, 1.0214426733884598], [0.512974632693832, -0.15477024059227412, 0.14510892848672627], [0.5071999095152742, 0.33161028826419353, -0.79480644135274]], [[-2.3338300171516018, 2.017112320186247, -2.305795476392225], [1.1529457839883306, -1.024372096856227, 1.3265521404834593], [-1.96432528531682, 2.2495573647351095, -0.6778273621373749]], [[0.06858034919891234, -0.11179239988845249, -0.011732156748650094], [0.1012363130104953, -0.019364480547711917, 0.005729685469091667], [0.13282477831681627, 0.038308455843132416, -0.02732883112761112]], [[0.13206093475809286, 0.09426838417411819, -0.10293715407195449], [0.009865792529440448, 0.14458301270190568, -0.09428830182495065], [-0.33133764593055864, 0.023087900702886733, -0.19460153718585352]], [[-0.1718002961861929, -0.16013683685708166, 0.08030487413567654], [-0.04169343034874733, 0.11931693483519003, 0.11287487529733871], [-0.032134324052052146, 0.1471753495114174, 0.1430264964400983]]]" pbc="F F F"
C        0.00000000       0.00000000       0.00000000
C        1.49492562       0.00000000       0.00000000
H       -0.52078843       0.95765779       0.00000000
H        2.01047656       0.77607881      -0.56385426
C       -0.87048002      -1.22379842      -0.00000000
H        2.36846631      -0.98251265       0.71383723
H       -0.28391531      -2.13887145      -0.00000000
H       -1.52145135      -1.23484856      -0.87564365
H       -1.52139133      -1.23471640       0.87568993
9
Properties=species:S:1:pos:R:3 REF_energy="_JSON [[-3182.589161803831, -3178.8314214803036, -3178.372522984841]]" REF_forces="_JSON [[[2.5734308892393885, 0.4707390079849498, 0.22667314053907905], [5.512575289482751, -0.33734915099494905, -0.15996378831216618], [6.127010715793704, -0.2370623753093591, -0.7462841867038446]], [[-1.3817371891823835, -0.0026823215235891175, 1.888077861707759], [-5.025931563991017, 0.05072401858855964, 0.5627222669420233], [-5.832865375927514, 0.2866468151525118, 1.37911584173765]], [[0.3720440594997785, -0.07817581456018277, 0.3433015925091904], [-0.06981073798093425, 0.04242359889143688, -0.14924375309673454], [0.1047585283643322, 0.09344394674442394, 0.18305091847272836]], [[0.42110480061377037, -0.19003729876945932, 0.574936812582695], [0.25022402348199907, 0.31307641419545384, 0.3504890197157789], [0.2112145007307515, 0.01176419358680318, 0.31139581229228214]], [[0.3319347066649704, 0.05244696772260297, -0.09597415794613451], [0.3515240580750109, -0.0696963336260855, 0.5296042678609832], [0.31665997718184613, -0.09526912020959097, 0.3649728980238122]], [[-2.2701318204852714, -0.01196914476003603, -2.941933585175722], [-0.9199756507106761, -0.35394044174010564, -1.118427793116925], [-0.7875464799116048, -0.21282826699841648, -1.4870349501918358]], [[0.04793793156797434, -0.1548167022080157, -0.00021987473572812223], [0.11540315230445593, 0.04796882842641125, -0.0014993854923768578], [0.069241529577598, -0.010009890894479158, -0.0026759076922151714]], [[-0.06752563972856408, -0.03436033455255136, -0.11390477856855939], [-0.03735846047150716, 0.24518151758846077, -0.1455978111444313], [-0.061046202779982774, 0.1617056677374531, -0.16498384208664252]], [[-0.027057738189493936, -0.05114435933360036, 0.11904298908933288], [-0.17665011018754798, 0.06161154867079199, 0.13191697664439447], [-0.14742719302893556, 0.0016090301907977747, 0.16244341614571955]]]" pbc="F F F"
C        0.00000000       0.00000000       0.00000000
C        1.54784334       0.00000000       0.00000000
H       -0.52078843       0.95765779       0.00000000
H        2.06339428      -0.06691642      -0.95694939
C       -0.87048002      -1.22379842      -0.00000000
H        2.42138404       0.08471592       1.21149408
H       -0.28391531      -2.13887145      -0.00000000
H       -1.52145135      -1.23484856      -0.87564365
H       -1.52139133      -1.23471640       0.87568993
9
Properties=species:S:1:pos:R:3 REF_energy="_JSON [[-3184.0444458915886, -3178.6246909146844, -3177.401981571031]]" REF_forces="_JSON [[[-2.0679667592190993, 1.1357712518250067, 0.38120324193427463], [-1.8549793097026352, -1.0784060461322629, -0.05328084866925881], [-6.3629761893361, 0.8157401161709592, 0.7422622945980499]], [[3.5545274538517724, 0.9358084362679335, 1.0817375267818752], [2.3605451277132237, 1.938513326200181, -0.9399645702532675], [7.0613254401418795, -0.7314318102461818, 0.1998037794323793]], [[-0.06298367240689556, -0.1380899586689381, 1.3147753259028836], [-0.2632680934979849, 0.18702935027968934, -0.4372762525801556], [-0.4069986684993697, -0.03934611876505925, -0.9661486228121929]], [[0.6705258063157165, -0.6668817745431329, 1.3414654039477243], [0.2754179158826183, 0.05398558251847022, 0.30820583949898295], [0.8391916437403079, 1.0195251680717878, -0.5245275084502474]], [[0.008275418117349687, -0.016114342573211118, -1.2219713681383504], [-0.3451703989511753, -0.14682375615173768, 0.8160308825956806], [0.08902786285302419, 0.03161760682607636, 0.9326068937964651]], [[-2.149893443728425, -1.0859855418567155, -2.941881679718446], [-0.031676334591570904, -1.1022607367208308, 0.3201090680712715], [-1.1245768349677663, -1.1690619305116998, -0.41150501191614985]], [[0.090210124000215, -0.1342606105391964, 0.00831644983952293], [0.10013107539914148, 0.006113072409141265, 0.004006712777985421], [0.12527812359053625, -0.032621137776684406, 0.021599278258990717]], [[-0.20083078280588962, -0.14940840821288182, -0.07096598517252799], [-0.008579004363944667, 0.2142499808448415, -0.14810445051472365], [0.019349575172066185, 0.18320855637284134, -0.13243516173854422]], [[0.15813585587517012, 0.11916094830049863, 0.10732108462361462], [-0.2324209778876683, -0.07240077324724492, 0.13027361907358917], [-0.23962095269346448, -0.07763045014286604, 0.13834405883135614]]]" pbc="F F F"
C        0.00000000       0.00000000       0.00000000
C        1.33617246       0.00000000       0.00000000
H       -0.52078843       0.95765779       0.00000000
H        1.85172339      -0.59059553      -0.75592781
C       -0.87048002      -1.22379842       0.00000000
H        2.20971315       0.74769157       0.95700158
H       -0.28391531      -2.13887145       0.00000000
H       -1.52145135      -1.23484856      -0.87564365
H       -1.52139133      -1.23471640       0.87568993
9
Properties=species:S:1:pos:R:3 REF_energy="_JSON [[-3185.1702264675796, -3178.595225303096, -3176.1242802414863]]" REF_forces="_JSON [[[4.104081445805788, -0.6253863909097076, -0.006161032729471269], [0.13944151855579706, 0.6745722550310244, -0.020714104852027106], [-0.3837250836366859, -2.7673313292863466, -0.1355479389463817]], [[-2.205836774150249, -1.9026098532341893, 0.08853413068066737], [-1.4946154468892732, 1.1057340383318528, -0.08638263208538273], [-2.025783899009686, 3.0358957494492573, -0.16668665987516007]], [[0.3948373427289054, -0.06536817941708446, -0.06271682461062728], [-0.20878474678841166, -0.07641734912614091, -0.003468304906831282], [0.829903338337139, 0.23480790835737955, 0.3911835848171076]], [[0.19105185053403903, -0.5490341079167362, 0.08067735809115607], [-0.35919236917496433, 0.318891284113285, 0.015544842158096399], [2.248818795342747, -1.197223399023569, -0.1888618626181236]], [[0.03039038420127047, 0.0741189017925637, 0.06888531971427375], [0.4349113976559948, -0.14382626409654653, 0.01565632898030335], [-0.08356927181672728, 0.4827816334963786, -0.14839004474039752]], [[-2.5633516637330196, 3.156324712021247, -0.16945835061774886], [1.4481401742741506, -2.141634638190749, 0.07658215355189595], [-0.41490282404423007, 0.7143183866643157, 0.267264643796874]], [[0.09881899085959078, -0.08737738875896309, 0.001182822758080492], [0.10091948556607283, 4.8484791513704756e-05, 0.0013828287834263904], [0.0415119894834462, -0.14662500917775084, -0.010522708444103147]], [[-0.014734895952713989, 0.008114467248938701, -0.08946397717771101], [-0.02785650983329079, 0.13349645538872099, -0.08782277210395317], [-0.13062469855889364, -0.18594711812385617, -0.14869332281996953]], [[-0.035256680292853164, -0.008782160825633621, 0.08852055389136691], [-0.03296350336276865, 0.1291357337577948, 0.08922166047484818], [-0.0816283460970914, -0.17067682235505163, 0.1402543088302609]]]" pbc="F F F"
C        0.00000000       0.00000000       0.00000000
C        1.44200790       0.00000000       0.00000000
H       -0.52078843       0.95765779       0.00000000
H        1.95755883       0.95870180      -0.03347860
C       -0.87048002      -1.22379842       0.00000000
H        2.31554859      -1.21371262       0.04238378
H       -0.28391531      -2.13887145       0.00000000
H       -1.52145135      -1.23484856      -0.87564365
H       -1.52139133      -1.23471640       0.87568993
9
Properties=species:S:1:pos:R:3 REF_energy="_JSON [[-3184.057473765835, -3178.6779296508676, -3177.708720604245]]" REF_forces="_JSON [[[1.2016082545148394, 1.1082503852956749, 0.299694992287768], [1.0502378657426132, -1.070025001797765, -0.2390706385620104], [-2.4807704560881976, 0.5122164631204836, 0.6031104100847339]], [[0.2318191782857599, 0.9669656296232921, 1.254865703723683], [-1.0638834772656358, 1.8339682522173015, -1.0614429094047164], [3.2642419723626155, -0.36553903412242034, 0.25235676618589625]], [[0.0764478348298453, -0.1386508178614995, 1.2496708293458245], [-0.010721248474645747, 0.11724838585508034, -0.1925075211908816], [-0.3271755455713019, -0.04330959271470553, -1.1206097933678312]], [[0.5627968735524266, -0.6057210619411858, 1.254315227358988], [0.05528988441521967, -0.2167842519425408, 0.34868996917471534], [0.716058424167, 1.1768975493733471, -0.4881668114507694]], [[0.13338169863058588, -0.01838907414933259, -1.140135237522443], [-0.14758660226637121, -0.09672016704178119, 0.6082036199934433], [0.2536602365997886, 0.05623624788964081, 1.1872100484742052]], [[-2.252953703994132, -1.14196154068251, -2.9604427007517886], [0.24341312351709518, -0.6903402614342753, 0.5557921527775038], [-1.304785105005011, -1.509324465346052, -0.4564725270892947]], [[0.07771106443821654, -0.14386244731561712, 0.008941336194292604], [0.08150314961094574, -0.015319307023396882, -0.0008106643143517827], [0.12669397954053904, -0.005875983532687423, 0.01762915426368588]], [[-0.18560210468840044, -0.13480428287749022, -0.07654913067364241], [-0.020624437279323594, 0.18162061529396642, -0.1452483567757377], [0.04368047799214304, 0.25422447720585806, -0.13994144801631303]], [[0.1547909044296626, 0.10817320991053159, 0.10963898003734796], [-0.18762825800243893, -0.043648264126226924, 0.12639434830203458], [-0.29160398399707793, -0.07552566187298163, 0.1448842009161952]]]" pbc="F F F"
C        0.00000000       0.00000000       0.00000000
C        1.40231961       0.00000000       0.00000000
H       -0.52078843       0.95765779       0.00000000
H        1.91787054      -0.59059553      -0.75592781
C       -0.87048002      -1.22379842       0.00000000
H        2.27586030       0.74769157       0.95700158
H       -0.28391531      -2.13887145       0.00000000
H       -1.52145135      -1.23484856      -0.87564365
H       -1.52139133      -1.23471640       0.87568993
9
Properties=species:S:1:pos:R:3 REF_energy="_JSON [[-3184.6633127312834, -3178.32298533406, -3176.852821254111]]" REF_forces="_JSON [[[-3.14648250065344, -0.8113395697304426, 0.0005184291547035989], [-5.134361416793498, 0.7768447186664679, 0.1681789486982075], [-6.010282078470877, -2.141649526094361, 0.5930958605710485]], [[4.74101436903456, -1.031677949139901, 0.7852178082555376], [5.142534055550637, -1.1060616036563284, -2.015435011699641], [6.191192414296898, 1.8632721444507818, 1.0430007791418994]], [[0.22391073802290795, -0.07437931770810655, -0.9778036338637379], [-0.7342576846554206, 0.11462100481693821, 0.44331859421401887], [0.052067278619286686, 0.113595215198228, 0.6486179819290446]], [[0.5718718010968373, 0.10302603978963401, 1.362491490660653], [-0.09663421449686282, 0.26995403844543603, 0.3974915098875714], [1.5460789678307862, -1.2050189883791407, -0.7619524534805588]], [[-0.2492951692483336, 0.11056823336195894, 1.2377720905671312], [0.12369875397723633, -0.23871089089722008, -0.2240371459616123], [-0.23635566642494796, 0.30403349495023074, -0.6084337713280075]], [[-2.183033329303203, 1.8555051315218858, -2.3739050166154274], [0.6592000233263786, -0.20217067741696607, 1.1787822242149533], [-1.2742514757869032, 1.2910578411839164, -0.8325913814117045]], [[0.11089680962972848, -0.08496616684936141, -0.009885012631283075], [0.15084948405523155, 0.05894622894688403, 0.0017158187971556638], [0.10017370597010018, -0.037682179571902126, -0.013046484121937554]], [[0.14543752928805884, 0.12453361655347021, -0.0874680661841461], [-0.06809362856497567, 0.1175041016406726, -0.07693268687823987], [-0.32075556605816363, -0.15326892356669392, -0.20174307245905734]], [[-0.21432024786641696, -0.19127001779869093, 0.06306191065523371], [-0.04293537239694088, 0.20907307945290038, 0.1269177487290805], [-0.04786757997676492, -0.03433907817328829, 0.13305254115954976]]]" pbc="F F F"
C        0.00000000       0.00000000       0.00000000
C        1.30971360       0.00000000       0.00000000
H       -0.52078843       0.95765779       0.00000000
H        1.82526453       0.77607881      -0.56385426
C       -0.87048002      -1.22379842      -0.00000000
H        2.18325429      -0.98251265       0.71383723
H       -0.28391531      -2.13887145      -0.00000000
H       -1.52145135      -1.23484856      -0.87564365
H       -1.52139133      -1.23471640       0.87568993
9
Properties=species:S:1:pos:R:3 REF_energy="_JSON [[-3183.298244263426, -3178.7506027921672, -3178.5699622590287]]" REF_forces="_JSON [[[1.7946493107999786, 0.9195996639240751, 0.3568347133056717], [4.050085652212829, -0.572608681023127, -0.47503619433055466], [1.4560323667444983, -0.4176060087265906, 0.12441795919645587]], [[-0.42872535992930133, 0.4868152903825836, 1.6626192716887531], [-3.798009231914655, 1.4732711951734327, 0.5486369237373769], [-0.8242043214401529, 0.42688185957486074, 0.18507651969106215]], [[0.15275786679936676, -0.1149394070818942, 1.221433448496199], [0.022905613448440647, 0.10889078489742281, -0.12418865447712567], [-0.22040349738718776, 0.045316557127299824, -1.411858221569509]], [[0.528342201367474, -0.8613743674074092, 0.9541952689566481], [0.35967625574709966, 0.03819674379569417, 0.3475550356354578], [0.46742416797227176, 1.4378320906375144, -0.09932971203129312]], [[0.23438035221889042, 0.011835259844865968, -1.0963017639360797], [0.0233475317607974, -0.11616495819411138, 0.5953534992497969], [0.16309818295896678, -0.01804240555757404, 1.7462432985655112]], [[-2.2811839596665364, -0.2555497028723653, -3.1412317036132533], [-0.5028989619203442, -1.00957324825916, -0.887588259136092], [-0.9076216638251903, -1.7304287942873646, -0.5148915487320641]], [[0.06929007944679008, -0.1449995752031287, 0.00899482683198542], [0.06724798621064847, -0.02253394192735906, -0.00018086866816257306], [0.12108291962476629, 0.030055044751904784, 0.001670955462170691]], [[-0.19927603954264955, -0.13516520958939113, -0.08766173540752446], [-0.028930507971162523, 0.16413788137839908, -0.16089199441733917], [0.11515665963789658, 0.3557715149738295, -0.15534584006932947]], [[0.1297655485062483, 0.09377804800183856, 0.12111767367634177], [-0.1934243375753084, -0.06361577584342464, 0.1563405124062971], [-0.37056481428691607, -0.1297798584949851, 0.12401658948756265]]]" pbc="F F F"
C        0.00000000       0.00000000       0.00000000
C        1.45523733       0.00000000       0.00000000
H       -0.52078843       0.95765779       0.00000000
H        1.97078826      -0.35935492      -0.88943464
C       -0.87048002      -1.22379842       0.00000000
H        2.32877802       0.45494189       1.12602069
H       -0.28391531      -2.13887145       0.00000000
H       -1.52145135      -1.23484856      -0.87564365
H       -1.52139133      -1.23471640       0.87568993
9
Properties=species:S:1:pos:R:3 REF_energy="_JSON [[-3184.605420677414, -3178.4912805869067, -3176.315570080033]]" REF_forces="_JSON [[[6.463349293516398, -0.4982129728760248, -0.008904645698499553], [2.872980493754792, 0.9128356025881845, -0.023198106014997357], [-0.6767663722562085, -0.14561884818300327, 0.06782886511347162]], [[-4.648568857879015, -2.2315488989261536, 0.23206636752067686], [-4.432627397150586, 0.6322726095078415, -0.3539665034549182], [-5.033365542552312, 6.169510397835169, -0.5891746314446882]], [[0.49631090865854954, -0.010577445641799075, -0.12473808585417194], [0.00040962413183658297, -0.07046708977628573, -0.010260427465063482], [0.41149701182038184, -0.02794258795549078, 0.01483676836854185]], [[0.05844792528947146, -0.41197928739391626, 0.19004897197611625], [-0.5220152049316004, 0.5988572776252433, 0.06628290080507472], [0.761258940505422, -0.31070353353879965, -0.02921515551379172]], [[0.20500573398117666, 0.04615112716851966, 0.16070186490822796], [0.5608456002824196, -0.14085681429924352, 0.03998724285261038], [0.3504262131853824, 0.1393043434052397, -0.053004297557577504]], [[-2.616384503350506, 3.167035403598509, -0.4397561825752643], [1.4741534036042174, -2.120697814333197, 0.277488671679325], [4.296203472678271, -5.538955941052152, 0.5866613136817587]], [[0.08383683522176504, -0.08857174535727044, -0.0024587453739795028], [0.07941301715570569, -0.03708264026497499, 0.0024890712550332188], [0.0054239164342663355, -0.15487339464429026, 0.0009090138712387803]], [[0.0013302825509154148, 0.03278501541800415, -0.1041045643753146], [-0.010502749125098453, 0.11724349121774254, -0.09827424575812392], [-0.06627626819899346, -0.07179372713325953, -0.1268307389832295]], [[-0.04332761798888688, -0.0050811959876867815, 0.09714501947165394], [-0.022656787722407777, 0.10789537773458582, 0.0994513961012272], [-0.0484013716163573, -0.058926708734614724, 0.127988862464587]]]" pbc="F F F"
C        0.00000000       0.00000000       0.00000000
C        1.54784334       0.00000000       0.00000000
H       -0.52078843       0.95765779       0.00000000
H        2.06339428       0.95403109      -0.10027271
C       -0.87048002      -1.22379842      -0.00000000
H        2.42138404      -1.20779953       0.12694485
H       -0.28391531      -2.13887145      -0.00000000
H       -1.52145135      -1.23484856      -0.87564365
H       -1.52139133      -1.23471640       0.87568993
9
Properties=species:S:1:pos:R:3 REF_energy="_JSON [[-3183.800768586633, -3176.566687418917, -3174.952596576014]]" REF_forces="_JSON [[[-16.365446550923735, -1.1356681038967482, 0.03869811925651051], [-18.9386418254236, 0.3968834614032619, 0.47554202298754644], [-18.524491449254892, -2.7868269076434595, 0.41277256050676286]], [[18.127359366996167, -0.7000892881281386, 0.3642119471604762], [19.55089501768324, -0.17404438729251778, -2.050962898837809], [18.43795258067759, 2.687537741752517, 1.3183620766419555]], [[0.008745465540512753, -0.14641071259899044, -0.8425970152924729], [-1.2933016549394167, 0.2755153142853203, 0.6477527807777467], [-0.11291058908005655, 0.19246242989351586, 0.899182513282058]], [[0.8106430292862216, -0.2902964094891529, 1.2837508515815965], [0.1602806817206026, -0.08834172375432203, 0.141240950300489], [2.20940268639493, -1.2524657902573708, -1.2488484376143416]], [[-0.5483543718091546, 0.1508399032268094, 1.0618289918031816], [-0.2623446984058481, -0.37177459413334407, -0.5564131758233835], [-0.8467619673561975, 0.2248774284751783, -0.8168447071840981]], [[-2.097004901542387, 2.27883625947853, -1.8870098008289384], [0.765855777036474, -0.5100798004054014, 1.2518608395041142], [-0.9024521479596648, 1.3337779132248355, -0.44565229391142147]], [[0.1405916251324344, -0.0654775146987419, -0.0064993498282387135], [0.1868152644045951, 0.10741007570921156, 0.005427186633930564], [0.09892372260363383, -0.03267703438898322, -0.02236776792211467]], [[0.11904256338579272, 0.09451028905843763, -0.06801229424462307], [-0.12289582483604258, 0.08299795717466964, -0.05374631051618871], [-0.36807527359780273, -0.2980037317564448, -0.23148242282156026]], [[-0.19557622606830918, -0.1862444229513837, 0.05562855039352118], [-0.04666273724319582, 0.2814336970137861, 0.13929860497345536], [0.008412437571186187, -0.0686820492992, 0.13487847902183905]]]" pbc="F F F"
C        0.00000000       0.00000000       0.00000000
C        1.17741929       0.00000000       0.00000000
H       -0.52078843       0.95765779       0.00000000
H        1.69297023       0.86220070      -0.42052338
C       -0.87048002      -1.22379842       0.00000000
H        2.05095999      -1.09154262       0.53238090
H       -0.28391531      -2.13887145       0.00000000
H       -1.52145135      -1.23484856      -0.87564365
H       -1.52139133      -1.23471640       0.87568993
9